4
	Energy:       4.7174223
Al        -1.59928        0.97353        0.00000
Cl         0.61160        0.97353       -0.00000
Cl        -2.70473       -0.30661       -1.42381
Cl        -2.70473        2.25367        1.42381
